title                   = Nipah virus complex production MD

integrator              = md
dt                      = 0.002
nsteps                  = 75000000    ; 150 ns

nstxout-compressed      = 5000       ; 10 ps
nstenergy               = 5000
nstlog                  = 5000

continuation            = yes
constraint_algorithm    = lincs
constraints              = h-bonds
lincs_iter              = 1
lincs_order              = 4

cutoff-scheme           = Verlet
coulombtype             = PME
rcoulomb                = 1.0
rvdw                    = 1.0
pme-order               = 4
fourierspacing          = 0.12

tcoupl                  = V-rescale
tc-grps                 = Protein Water_and_ions
tau_t                   = 0.1 0.1
ref_t                   = 300 300

pcoupl                  = C-rescale
pcoupltype              = isotropic
tau_p                   = 5.0
ref_p                   = 1.0
compressibility         = 4.5e-5

pbc                     = xyz
